r 0.020416 11 7 tcp 40 C--A--- 0 6.0 7.0 0 8 -1 0xca 40 0 -
r 0.061248 11 7 tcp 40 ------N 0 6.0 7.0 1 10 1 0x10 40 0 -
r 0.07584 11 7 tcp 1440 ------N 0 6.0 7.0 1 11 1 0x10 40 0 -
r 0.08736 11 7 tcp 1440 ------N 0 6.0 7.0 1401 12 1 0x10 40 0 -
r 0.131232 11 7 tcp 1440 ------N 0 6.0 7.0 2801 15 1 0x10 40 0 -
r 0.142752 11 7 tcp 1440 ------N 0 6.0 7.0 4201 16 1 0x10 40 0 -
r 0.154272 11 7 tcp 1440 ------N 0 6.0 7.0 5601 17 1 0x10 40 0 -
r 0.165792 11 7 tcp 1440 ------N 0 6.0 7.0 7001 18 1 0x10 40 0 -
r 0.186624 11 7 tcp 1440 ------N 0 6.0 7.0 8401 21 1 0x10 40 0 -
r 0.198144 11 7 tcp 1440 ------N 0 6.0 7.0 9801 22 1 0x10 40 0 -
r 0.209664 11 7 tcp 1440 ------N 0 6.0 7.0 11201 24 1 0x10 40 0 -
r 0.221184 11 7 tcp 1440 ------N 0 6.0 7.0 12601 25 1 0x10 40 0 -
r 0.232704 11 7 tcp 1440 ------N 0 6.0 7.0 14001 27 1 0x10 40 0 -
r 0.244224 11 7 tcp 1440 ------N 0 6.0 7.0 15401 28 1 0x10 40 0 -
r 0.255744 11 7 tcp 1440 ------N 0 6.0 7.0 16801 29 1 0x10 40 0 -
r 0.267264 11 7 tcp 1440 ------N 0 6.0 7.0 18201 30 1 0x10 40 0 -
r 0.278784 11 7 tcp 1440 ------N 0 6.0 7.0 19601 33 1 0x10 40 0 -
r 0.290304 11 7 tcp 1440 ------N 0 6.0 7.0 21001 34 1 0x10 40 0 -
r 0.301824 11 7 tcp 1440 ------N 0 6.0 7.0 22401 36 1 0x10 40 0 -
r 0.313344 11 7 tcp 1440 ------N 0 6.0 7.0 23801 37 1 0x10 40 0 -
r 0.324864 11 7 tcp 1440 ------N 0 6.0 7.0 25201 39 1 0x10 40 0 -
r 0.336384 11 7 tcp 1440 ------N 0 6.0 7.0 26601 40 1 0x10 40 0 -
r 0.347904 11 7 tcp 1440 ------N 0 6.0 7.0 28001 42 1 0x10 40 0 -
r 0.359424 11 7 tcp 1440 ------N 0 6.0 7.0 29401 43 1 0x10 40 0 -
r 0.370944 11 7 tcp 1440 ------N 0 6.0 7.0 30801 45 1 0x10 40 0 -
r 0.382464 11 7 tcp 1440 ------N 0 6.0 7.0 32201 46 1 0x10 40 0 -
r 0.393984 11 7 tcp 1440 ------N 0 6.0 7.0 33601 48 1 0x10 40 0 -
r 0.405504 11 7 tcp 1440 ------N 0 6.0 7.0 35001 49 1 0x10 40 0 -
r 0.417024 11 7 tcp 1440 ------N 0 6.0 7.0 36401 51 1 0x10 40 0 -
r 0.428544 11 7 tcp 1440 ------N 0 6.0 7.0 37801 52 1 0x10 40 0 -
r 0.440064 11 7 tcp 1440 ----E-N 0 6.0 7.0 39201 54 1 0x10 40 0 -
r 0.451584 11 7 tcp 1440 ----E-N 0 6.0 7.0 40601 55 1 0x10 40 0 -
r 0.463104 11 7 tcp 1440 ----E-N 0 6.0 7.0 42001 57 1 0x10 40 0 -
r 0.474624 11 7 tcp 1440 ----E-N 0 6.0 7.0 43401 58 1 0x10 40 0 -
r 0.486144 11 7 tcp 1440 ----E-N 0 6.0 7.0 44801 60 1 0x10 40 0 -
r 0.497664 11 7 tcp 1440 ----E-N 0 6.0 7.0 46201 61 1 0x10 40 0 -
r 0.509184 11 7 tcp 1440 ----E-N 0 6.0 7.0 47601 63 1 0x10 40 0 -
r 0.520704 11 7 tcp 1440 ----E-N 0 6.0 7.0 49001 64 1 0x10 40 0 -
r 0.532224 11 7 tcp 1440 ----E-N 0 6.0 7.0 50401 66 1 0x10 40 0 -
r 0.543744 11 7 tcp 1440 ----E-N 0 6.0 7.0 51801 67 1 0x10 40 0 -
r 0.555264 11 7 tcp 1440 ----E-N 0 6.0 7.0 53201 69 1 0x10 40 0 -
r 0.566784 11 7 tcp 1440 ----E-N 0 6.0 7.0 54601 70 1 0x10 40 0 -
r 0.578304 11 7 tcp 1440 ----E-N 0 6.0 7.0 56001 72 1 0x10 40 0 -
r 0.589824 11 7 tcp 1440 ----E-N 0 6.0 7.0 57401 73 1 0x10 40 0 -
r 0.601344 11 7 tcp 1440 ----E-N 0 6.0 7.0 58801 75 1 0x10 40 0 -
r 0.612864 11 7 tcp 1440 ----E-N 0 6.0 7.0 60201 76 1 0x10 40 0 -
r 0.624384 11 7 tcp 1440 ----E-N 0 6.0 7.0 61601 78 1 0x10 40 0 -
r 0.635904 11 7 tcp 1440 ----E-N 0 6.0 7.0 63001 79 1 0x10 40 0 -
r 0.647424 11 7 tcp 1440 ----E-N 0 6.0 7.0 64401 81 1 0x10 40 0 -
r 0.658944 11 7 tcp 1440 ----E-N 0 6.0 7.0 65801 82 1 0x10 40 0 -
r 0.670464 11 7 tcp 1440 ----E-N 0 6.0 7.0 67201 84 1 0x10 40 0 -
r 0.681984 11 7 tcp 1440 ----E-N 0 6.0 7.0 68601 85 1 0x10 40 0 -
r 0.693504 11 7 tcp 1440 ----E-N 0 6.0 7.0 70001 87 1 0x10 40 0 -
r 0.705024 11 7 tcp 1440 ----E-N 0 6.0 7.0 71401 88 1 0x10 40 0 -
r 0.716544 11 7 tcp 1440 ----E-N 0 6.0 7.0 72801 90 1 0x10 40 0 -
r 0.728064 11 7 tcp 1440 ----E-N 0 6.0 7.0 74201 91 1 0x10 40 0 -
r 0.739584 11 7 tcp 1440 ----E-N 0 6.0 7.0 75601 93 1 0x10 40 0 -
r 0.751104 11 7 tcp 1440 ----E-N 0 6.0 7.0 77001 94 1 0x10 40 0 -
r 0.762624 11 7 tcp 1440 ----E-N 0 6.0 7.0 78401 96 1 0x10 40 0 -
r 0.774144 11 7 tcp 1440 ----E-N 0 6.0 7.0 79801 97 1 0x10 40 0 -
r 0.785664 11 7 tcp 1440 ---AE-N 0 6.0 7.0 81201 100 1 0x90 40 0 -
r 0.797184 11 7 tcp 1440 ----E-N 0 6.0 7.0 82601 102 1 0x10 40 0 -
r 0.808704 11 7 tcp 1440 ----E-N 0 6.0 7.0 84001 104 1 0x10 40 0 -
r 0.820224 11 7 tcp 1440 ----E-N 0 6.0 7.0 85401 106 1 0x10 40 0 -
r 0.831744 11 7 tcp 1440 ----E-N 0 6.0 7.0 86801 108 1 0x10 40 0 -
r 0.843264 11 7 tcp 1440 ----E-N 0 6.0 7.0 88201 110 1 0x10 40 0 -
r 0.854784 11 7 tcp 1440 ----E-N 0 6.0 7.0 89601 112 1 0x10 40 0 -
r 0.866304 11 7 tcp 1440 ----E-N 0 6.0 7.0 91001 114 1 0x10 40 0 -
r 0.877824 11 7 tcp 1440 ----E-N 0 6.0 7.0 92401 116 1 0x10 40 0 -
r 0.889344 11 7 tcp 1440 ----E-N 0 6.0 7.0 93801 118 1 0x10 40 0 -
r 0.900864 11 7 tcp 1440 ----E-N 0 6.0 7.0 95201 120 1 0x10 40 0 -
r 0.912384 11 7 tcp 1440 ----E-N 0 6.0 7.0 96601 122 1 0x10 40 0 -
r 0.923904 11 7 tcp 1440 ----E-N 0 6.0 7.0 98001 124 1 0x10 40 0 -
r 0.935424 11 7 tcp 1440 ----E-N 0 6.0 7.0 99401 126 1 0x10 40 0 -
r 0.946944 11 7 tcp 1440 ----E-N 0 6.0 7.0 100801 128 1 0x10 40 0 -
r 0.958464 11 7 tcp 1440 ----E-N 0 6.0 7.0 102201 130 1 0x10 40 0 -
r 0.969984 11 7 tcp 1440 ----E-N 0 6.0 7.0 103601 132 1 0x10 40 0 -
r 0.981504 11 7 tcp 1440 ----E-N 0 6.0 7.0 105001 134 1 0x10 40 0 -
r 0.993024 11 7 tcp 1440 ----E-N 0 6.0 7.0 106401 136 1 0x10 40 0 -
r 1.004544 11 7 tcp 1440 ----E-N 0 6.0 7.0 107801 138 1 0x10 40 0 -
r 1.016064 11 7 tcp 1440 ----E-N 0 6.0 7.0 109201 140 1 0x10 40 0 -
r 1.027584 11 7 tcp 1440 ----E-N 0 6.0 7.0 110601 142 1 0x10 40 0 -
r 1.039104 11 7 tcp 1440 ----E-N 0 6.0 7.0 112001 144 1 0x10 40 0 -
r 1.050624 11 7 tcp 1440 ----E-N 0 6.0 7.0 113401 146 1 0x10 40 0 -
r 1.062144 11 7 tcp 1440 ----E-N 0 6.0 7.0 114801 148 1 0x10 40 0 -
r 1.073664 11 7 tcp 1440 ----E-N 0 6.0 7.0 116201 150 1 0x10 40 0 -
r 1.085184 11 7 tcp 1440 ----E-N 0 6.0 7.0 117601 152 1 0x10 40 0 -
r 1.096704 11 7 tcp 1440 ----E-N 0 6.0 7.0 119001 154 1 0x10 40 0 -
r 1.108224 11 7 tcp 1440 ----E-N 0 6.0 7.0 120401 156 1 0x10 40 0 -
r 1.119744 11 7 tcp 1440 ---AE-N 0 6.0 7.0 121801 159 1 0x90 40 0 -
r 1.131264 11 7 tcp 1440 ----E-N 0 6.0 7.0 123201 161 1 0x10 40 0 -
r 1.142784 11 7 tcp 1440 ----E-N 0 6.0 7.0 124601 163 1 0x10 40 0 -
r 1.154304 11 7 tcp 1440 ----E-N 0 6.0 7.0 126001 165 1 0x10 40 0 -
r 1.165824 11 7 tcp 1440 ----E-N 0 6.0 7.0 127401 167 1 0x10 40 0 -
r 1.177344 11 7 tcp 1440 ----E-N 0 6.0 7.0 128801 169 1 0x10 40 0 -
r 1.188864 11 7 tcp 1440 ----E-N 0 6.0 7.0 130201 171 1 0x10 40 0 -
r 1.200384 11 7 tcp 1440 ----E-N 0 6.0 7.0 131601 173 1 0x10 40 0 -
r 1.211904 11 7 tcp 1440 ----E-N 0 6.0 7.0 133001 175 1 0x10 40 0 -
r 1.223424 11 7 tcp 1440 ----E-N 0 6.0 7.0 134401 177 1 0x10 40 0 -
r 1.234944 11 7 tcp 1440 ----E-N 0 6.0 7.0 135801 179 1 0x10 40 0 -
r 1.246464 11 7 tcp 1440 ----E-N 0 6.0 7.0 137201 181 1 0x10 40 0 -
r 1.257984 11 7 tcp 1440 ----E-N 0 6.0 7.0 138601 183 1 0x10 40 0 -
r 1.269504 11 7 tcp 1440 ----E-N 0 6.0 7.0 140001 185 1 0x10 40 0 -
r 1.281024 11 7 tcp 1440 ----E-N 0 6.0 7.0 141401 187 1 0x10 40 0 -
r 1.292544 11 7 tcp 1440 ----E-N 0 6.0 7.0 142801 189 1 0x10 40 0 -
r 1.304064 11 7 tcp 1440 ----E-N 0 6.0 7.0 144201 191 1 0x10 40 0 -
r 1.315584 11 7 tcp 1440 ----E-N 0 6.0 7.0 145601 193 1 0x10 40 0 -
r 1.327104 11 7 tcp 1440 ----E-N 0 6.0 7.0 147001 195 1 0x10 40 0 -
r 1.338624 11 7 tcp 1440 ----E-N 0 6.0 7.0 148401 197 1 0x10 40 0 -
r 1.350144 11 7 tcp 1440 ----E-N 0 6.0 7.0 149801 199 1 0x10 40 0 -
r 1.361664 11 7 tcp 1440 ----E-N 0 6.0 7.0 151201 201 1 0x10 40 0 -
r 1.373184 11 7 tcp 1440 ----E-N 0 6.0 7.0 152601 203 1 0x10 40 0 -
r 1.384704 11 7 tcp 1440 ----E-N 0 6.0 7.0 154001 205 1 0x10 40 0 -
r 1.396224 11 7 tcp 1440 ----E-N 0 6.0 7.0 155401 207 1 0x10 40 0 -
r 1.407744 11 7 tcp 1440 ----E-N 0 6.0 7.0 156801 209 1 0x10 40 0 -
r 1.419264 11 7 tcp 1440 ----E-N 0 6.0 7.0 158201 211 1 0x10 40 0 -
r 1.430784 11 7 tcp 1440 ----E-N 0 6.0 7.0 159601 213 1 0x10 40 0 -
r 1.442304 11 7 tcp 1440 ----E-N 0 6.0 7.0 161001 214 1 0x10 40 0 -
r 1.453824 11 7 tcp 1440 ---AE-N 0 6.0 7.0 162401 219 1 0x90 40 0 -
r 1.465344 11 7 tcp 1440 ----E-N 0 6.0 7.0 163801 221 1 0x10 40 0 -
r 1.476864 11 7 tcp 1440 ----E-N 0 6.0 7.0 165201 223 1 0x10 40 0 -
r 1.488384 11 7 tcp 1440 ----E-N 0 6.0 7.0 166601 225 1 0x10 40 0 -
r 1.499904 11 7 tcp 1440 ----E-N 0 6.0 7.0 168001 227 1 0x10 40 0 -
r 1.511424 11 7 tcp 1440 ----E-N 0 6.0 7.0 169401 229 1 0x10 40 0 -
r 1.522944 11 7 tcp 1440 ----E-N 0 6.0 7.0 170801 231 1 0x10 40 0 -
r 1.534464 11 7 tcp 1440 ----E-N 0 6.0 7.0 172201 233 1 0x10 40 0 -
r 1.545984 11 7 tcp 1440 ----E-N 0 6.0 7.0 173601 235 1 0x10 40 0 -
r 1.557504 11 7 tcp 1440 ----E-N 0 6.0 7.0 175001 237 1 0x10 40 0 -
r 1.569024 11 7 tcp 1440 ----E-N 0 6.0 7.0 176401 239 1 0x10 40 0 -
r 1.580544 11 7 tcp 1440 ----E-N 0 6.0 7.0 177801 241 1 0x10 40 0 -
r 1.592064 11 7 tcp 1440 ----E-N 0 6.0 7.0 179201 243 1 0x10 40 0 -
r 1.603584 11 7 tcp 1440 ----E-N 0 6.0 7.0 180601 245 1 0x10 40 0 -
r 1.615104 11 7 tcp 1440 ----E-N 0 6.0 7.0 182001 247 1 0x10 40 0 -
r 1.626624 11 7 tcp 1440 ----E-N 0 6.0 7.0 183401 249 1 0x10 40 0 -
r 1.638144 11 7 tcp 1440 ----E-N 0 6.0 7.0 184801 251 1 0x10 40 0 -
r 1.649664 11 7 tcp 1440 ----E-N 0 6.0 7.0 186201 253 1 0x10 40 0 -
r 1.661184 11 7 tcp 1440 ----E-N 0 6.0 7.0 187601 255 1 0x10 40 0 -
r 1.672704 11 7 tcp 1440 ----E-N 0 6.0 7.0 189001 257 1 0x10 40 0 -
r 1.684224 11 7 tcp 1440 ----E-N 0 6.0 7.0 190401 259 1 0x10 40 0 -
r 1.695744 11 7 tcp 1440 ----E-N 0 6.0 7.0 191801 261 1 0x10 40 0 -
r 1.707264 11 7 tcp 1440 ----E-N 0 6.0 7.0 193201 263 1 0x10 40 0 -
r 1.718784 11 7 tcp 1440 ----E-N 0 6.0 7.0 194601 265 1 0x10 40 0 -
r 1.730304 11 7 tcp 1440 ----E-N 0 6.0 7.0 196001 266 1 0x10 40 0 -
r 1.741824 11 7 tcp 1440 ----E-N 0 6.0 7.0 197401 268 1 0x10 40 0 -
r 1.753344 11 7 tcp 1440 ----E-N 0 6.0 7.0 198801 270 1 0x10 40 0 -
r 1.764864 11 7 tcp 1440 ---AE-N 0 6.0 7.0 200201 275 1 0x90 40 0 -
r 1.776384 11 7 tcp 1440 ----E-N 0 6.0 7.0 201601 277 1 0x10 40 0 -
r 1.787904 11 7 tcp 1440 ----E-N 0 6.0 7.0 203001 279 1 0x10 40 0 -
r 1.799424 11 7 tcp 1440 ----E-N 0 6.0 7.0 204401 281 1 0x10 40 0 -
r 1.810944 11 7 tcp 1440 ----E-N 0 6.0 7.0 205801 283 1 0x10 40 0 -
r 1.822464 11 7 tcp 1440 ----E-N 0 6.0 7.0 207201 285 1 0x10 40 0 -
r 1.833984 11 7 tcp 1440 ----E-N 0 6.0 7.0 208601 287 1 0x10 40 0 -
r 1.845504 11 7 tcp 1440 ----E-N 0 6.0 7.0 210001 289 1 0x10 40 0 -
r 1.857024 11 7 tcp 1440 ----E-N 0 6.0 7.0 211401 291 1 0x10 40 0 -
r 1.868544 11 7 tcp 1440 ----E-N 0 6.0 7.0 212801 293 1 0x10 40 0 -
r 1.880064 11 7 tcp 1440 ----E-N 0 6.0 7.0 214201 295 1 0x10 40 0 -
r 1.891584 11 7 tcp 1440 ----E-N 0 6.0 7.0 215601 297 1 0x10 40 0 -
r 1.903104 11 7 tcp 1440 ----E-N 0 6.0 7.0 217001 299 1 0x10 40 0 -
r 1.914624 11 7 tcp 1440 ----E-N 0 6.0 7.0 218401 301 1 0x10 40 0 -
r 1.926144 11 7 tcp 1440 ----E-N 0 6.0 7.0 219801 303 1 0x10 40 0 -
r 1.937664 11 7 tcp 1440 ----E-N 0 6.0 7.0 221201 305 1 0x10 40 0 -
r 1.949184 11 7 tcp 1440 ----E-N 0 6.0 7.0 222601 307 1 0x10 40 0 -
r 1.960704 11 7 tcp 1440 ----E-N 0 6.0 7.0 224001 309 1 0x10 40 0 -
r 1.972224 11 7 tcp 1440 ----E-N 0 6.0 7.0 225401 311 1 0x10 40 0 -
r 1.983744 11 7 tcp 1440 ----E-N 0 6.0 7.0 226801 313 1 0x10 40 0 -
r 1.995264 11 7 tcp 1440 ----E-N 0 6.0 7.0 228201 315 1 0x10 40 0 -
r 2.006784 11 7 tcp 1440 ----E-N 0 6.0 7.0 229601 317 1 0x10 40 0 -
r 2.018304 11 7 tcp 1440 ----E-N 0 6.0 7.0 231001 318 1 0x10 40 0 -
r 2.029824 11 7 tcp 1440 ----E-N 0 6.0 7.0 232401 320 1 0x10 40 0 -
r 2.041344 11 7 tcp 1440 ----E-N 0 6.0 7.0 233801 322 1 0x10 40 0 -
r 2.052864 11 7 tcp 1440 ---AE-N 0 6.0 7.0 235201 327 1 0x90 40 0 -
r 2.064384 11 7 tcp 1440 ----E-N 0 6.0 7.0 236601 329 1 0x10 40 0 -
r 2.075904 11 7 tcp 1440 ----E-N 0 6.0 7.0 238001 331 1 0x10 40 0 -
r 2.087424 11 7 tcp 1440 ----E-N 0 6.0 7.0 239401 333 1 0x10 40 0 -
r 2.098944 11 7 tcp 1440 ----E-N 0 6.0 7.0 240801 335 1 0x10 40 0 -
r 2.110464 11 7 tcp 1440 ----E-N 0 6.0 7.0 242201 337 1 0x10 40 0 -
r 2.121984 11 7 tcp 1440 ----E-N 0 6.0 7.0 243601 339 1 0x10 40 0 -
r 2.133504 11 7 tcp 1440 ----E-N 0 6.0 7.0 245001 341 1 0x10 40 0 -
r 2.145024 11 7 tcp 1440 ----E-N 0 6.0 7.0 246401 343 1 0x10 40 0 -
r 2.156544 11 7 tcp 1440 ----E-N 0 6.0 7.0 247801 345 1 0x10 40 0 -
r 2.168064 11 7 tcp 1440 ----E-N 0 6.0 7.0 249201 347 1 0x10 40 0 -
r 2.179584 11 7 tcp 1440 ----E-N 0 6.0 7.0 250601 349 1 0x10 40 0 -
r 2.191104 11 7 tcp 1440 ----E-N 0 6.0 7.0 252001 351 1 0x10 40 0 -
r 2.202624 11 7 tcp 1440 ----E-N 0 6.0 7.0 253401 353 1 0x10 40 0 -
r 2.214144 11 7 tcp 1440 ----E-N 0 6.0 7.0 254801 355 1 0x10 40 0 -
r 2.225664 11 7 tcp 1440 ----E-N 0 6.0 7.0 256201 357 1 0x10 40 0 -
r 2.237184 11 7 tcp 1440 ----E-N 0 6.0 7.0 257601 359 1 0x10 40 0 -
r 2.248704 11 7 tcp 1440 ----E-N 0 6.0 7.0 259001 361 1 0x10 40 0 -
r 2.260224 11 7 tcp 1440 ----E-N 0 6.0 7.0 260401 363 1 0x10 40 0 -
r 2.271744 11 7 tcp 1440 ----E-N 0 6.0 7.0 261801 365 1 0x10 40 0 -
r 2.283264 11 7 tcp 1440 ----E-N 0 6.0 7.0 263201 366 1 0x10 40 0 -
r 2.294784 11 7 tcp 1440 ----E-N 0 6.0 7.0 264601 368 1 0x10 40 0 -
r 2.306304 11 7 tcp 1440 ----E-N 0 6.0 7.0 266001 370 1 0x10 40 0 -
r 2.317824 11 7 tcp 1440 ---AE-N 0 6.0 7.0 267401 376 1 0x90 40 0 -
r 2.329344 11 7 tcp 1440 ----E-N 0 6.0 7.0 268801 378 1 0x10 40 0 -
r 2.340864 11 7 tcp 1440 ----E-N 0 6.0 7.0 270201 380 1 0x10 40 0 -
r 2.352384 11 7 tcp 1440 ----E-N 0 6.0 7.0 271601 382 1 0x10 40 0 -
r 2.363904 11 7 tcp 1440 ----E-N 0 6.0 7.0 273001 384 1 0x10 40 0 -
r 2.375424 11 7 tcp 1440 ----E-N 0 6.0 7.0 274401 386 1 0x10 40 0 -
r 2.386944 11 7 tcp 1440 ----E-N 0 6.0 7.0 275801 388 1 0x10 40 0 -
r 2.398464 11 7 tcp 1440 ----E-N 0 6.0 7.0 277201 390 1 0x10 40 0 -
r 2.409984 11 7 tcp 1440 ----E-N 0 6.0 7.0 278601 392 1 0x10 40 0 -
r 2.421504 11 7 tcp 1440 ----E-N 0 6.0 7.0 280001 394 1 0x10 40 0 -
r 2.433024 11 7 tcp 1440 ----E-N 0 6.0 7.0 281401 396 1 0x10 40 0 -
r 2.444544 11 7 tcp 1440 ----E-N 0 6.0 7.0 282801 398 1 0x10 40 0 -
r 2.456064 11 7 tcp 1440 ----E-N 0 6.0 7.0 284201 400 1 0x10 40 0 -
r 2.467584 11 7 tcp 1440 ----E-N 0 6.0 7.0 285601 402 1 0x10 40 0 -
r 2.479104 11 7 tcp 1440 ----E-N 0 6.0 7.0 287001 404 1 0x10 40 0 -
r 2.490624 11 7 tcp 1440 ----E-N 0 6.0 7.0 288401 406 1 0x10 40 0 -
r 2.502144 11 7 tcp 1440 ----E-N 0 6.0 7.0 289801 407 1 0x10 40 0 -
r 2.513664 11 7 tcp 1440 ----E-N 0 6.0 7.0 291201 409 1 0x10 40 0 -
r 2.525184 11 7 tcp 1440 ----E-N 0 6.0 7.0 292601 411 1 0x10 40 0 -
r 2.536704 11 7 tcp 1440 ----E-N 0 6.0 7.0 294001 413 1 0x10 40 0 -
r 2.548224 11 7 tcp 1440 ---AE-N 0 6.0 7.0 295401 419 1 0x90 40 0 -
r 2.559744 11 7 tcp 1440 ----E-N 0 6.0 7.0 296801 421 1 0x10 40 0 -
r 2.571264 11 7 tcp 1440 ----E-N 0 6.0 7.0 298201 423 1 0x10 40 0 -
r 2.582784 11 7 tcp 1440 ----E-N 0 6.0 7.0 299601 425 1 0x10 40 0 -
r 2.594304 11 7 tcp 1440 ----E-N 0 6.0 7.0 301001 427 1 0x10 40 0 -
r 2.605824 11 7 tcp 1440 ----E-N 0 6.0 7.0 302401 429 1 0x10 40 0 -
r 2.617344 11 7 tcp 1440 ----E-N 0 6.0 7.0 303801 431 1 0x10 40 0 -
r 2.628864 11 7 tcp 1440 ----E-N 0 6.0 7.0 305201 433 1 0x10 40 0 -
r 2.640384 11 7 tcp 1440 ----E-N 0 6.0 7.0 306601 435 1 0x10 40 0 -
r 2.651904 11 7 tcp 1440 ----E-N 0 6.0 7.0 308001 437 1 0x10 40 0 -
r 2.663424 11 7 tcp 1440 ----E-N 0 6.0 7.0 309401 439 1 0x10 40 0 -
r 2.674944 11 7 tcp 1440 ----E-N 0 6.0 7.0 310801 441 1 0x10 40 0 -
r 2.686464 11 7 tcp 1440 ----E-N 0 6.0 7.0 312201 443 1 0x10 40 0 -
r 2.697984 11 7 tcp 1440 ----E-N 0 6.0 7.0 313601 444 1 0x10 40 0 -
r 2.709504 11 7 tcp 1440 ----E-N 0 6.0 7.0 315001 446 1 0x10 40 0 -
r 2.721024 11 7 tcp 1440 ----E-N 0 6.0 7.0 316401 448 1 0x10 40 0 -
r 2.732544 11 7 tcp 1440 ----E-N 0 6.0 7.0 317801 450 1 0x10 40 0 -
r 2.744064 11 7 tcp 1440 ---A--N 0 6.0 7.0 319201 455 1 0x90 40 0 -
r 2.755584 11 7 tcp 1440 ------N 0 6.0 7.0 320601 457 1 0x10 40 0 -
r 2.767104 11 7 tcp 1440 ------N 0 6.0 7.0 322001 459 1 0x10 40 0 -
r 2.778624 11 7 tcp 1440 ------N 0 6.0 7.0 323401 461 1 0x10 40 0 -
r 2.790144 11 7 tcp 1440 ------N 0 6.0 7.0 324801 463 1 0x10 40 0 -
r 2.801664 11 7 tcp 1440 ------N 0 6.0 7.0 326201 465 1 0x10 40 0 -
r 2.813184 11 7 tcp 1440 ------N 0 6.0 7.0 327601 467 1 0x10 40 0 -
r 2.824704 11 7 tcp 1440 ------N 0 6.0 7.0 329001 469 1 0x10 40 0 -
r 2.836224 11 7 tcp 1440 ------N 0 6.0 7.0 330401 471 1 0x10 40 0 -
r 2.847744 11 7 tcp 1440 ------N 0 6.0 7.0 331801 473 1 0x10 40 0 -
r 2.859264 11 7 tcp 1440 ------N 0 6.0 7.0 333201 475 1 0x10 40 0 -
r 2.870784 11 7 tcp 1440 ------N 0 6.0 7.0 334601 477 1 0x10 40 0 -
r 2.882304 11 7 tcp 1440 ------N 0 6.0 7.0 336001 478 1 0x10 40 0 -
r 2.893824 11 7 tcp 1440 ----E-N 0 6.0 7.0 337401 480 1 0x10 40 0 -
r 2.905344 11 7 tcp 1440 ----E-N 0 6.0 7.0 338801 482 1 0x10 40 0 -
r 2.916864 11 7 tcp 1440 ----E-N 0 6.0 7.0 340201 484 1 0x10 40 0 -
r 2.928384 11 7 tcp 1440 ----E-N 0 6.0 7.0 341601 486 1 0x10 40 0 -
r 2.939904 11 7 tcp 1440 ----E-N 0 6.0 7.0 343001 488 1 0x10 40 0 -
r 2.951424 11 7 tcp 1440 ----E-N 0 6.0 7.0 344401 490 1 0x10 40 0 -
r 2.962944 11 7 tcp 1440 ----E-N 0 6.0 7.0 345801 492 1 0x10 40 0 -
r 2.974464 11 7 tcp 1440 ----E-N 0 6.0 7.0 347201 494 1 0x10 40 0 -
r 2.985984 11 7 tcp 1440 ----E-N 0 6.0 7.0 348601 496 1 0x10 40 0 -
r 2.997504 11 7 tcp 1440 ----E-N 0 6.0 7.0 350001 498 1 0x10 40 0 -
r 3.009024 11 7 tcp 1440 ----E-N 0 6.0 7.0 351401 500 1 0x10 40 0 -
r 3.020544 11 7 tcp 1440 ----E-N 0 6.0 7.0 352801 502 1 0x10 40 0 -
r 3.032064 11 7 tcp 1440 ----E-N 0 6.0 7.0 354201 504 1 0x10 40 0 -
r 3.043584 11 7 tcp 1440 ----E-N 0 6.0 7.0 355601 506 1 0x10 40 0 -
r 3.055104 11 7 tcp 1440 ----E-N 0 6.0 7.0 357001 508 1 0x10 40 0 -
r 3.066624 11 7 tcp 1440 ---A--N 0 6.0 7.0 358401 513 1 0x90 40 0 -
r 3.078144 11 7 tcp 1440 ------N 0 6.0 7.0 359801 515 1 0x10 40 0 -
r 3.089664 11 7 tcp 1440 ------N 0 6.0 7.0 361201 517 1 0x10 40 0 -
r 3.101184 11 7 tcp 1440 ------N 0 6.0 7.0 362601 519 1 0x10 40 0 -
r 3.112704 11 7 tcp 1440 ------N 0 6.0 7.0 364001 521 1 0x10 40 0 -
r 3.124224 11 7 tcp 1440 ------N 0 6.0 7.0 365401 523 1 0x10 40 0 -
r 3.135744 11 7 tcp 1440 ------N 0 6.0 7.0 366801 525 1 0x10 40 0 -
r 3.147264 11 7 tcp 1440 ------N 0 6.0 7.0 368201 527 1 0x10 40 0 -
r 3.158784 11 7 tcp 1440 ------N 0 6.0 7.0 369601 529 1 0x10 40 0 -
r 3.170304 11 7 tcp 1440 ------N 0 6.0 7.0 371001 531 1 0x10 40 0 -
r 3.181824 11 7 tcp 1440 ------N 0 6.0 7.0 372401 533 1 0x10 40 0 -
r 3.193344 11 7 tcp 1440 ------N 0 6.0 7.0 373801 534 1 0x10 40 0 -
r 3.204864 11 7 tcp 1440 ------N 0 6.0 7.0 375201 536 1 0x10 40 0 -
r 3.216384 11 7 tcp 1440 ------N 0 6.0 7.0 376601 538 1 0x10 40 0 -
r 3.227904 11 7 tcp 1440 ------N 0 6.0 7.0 378001 540 1 0x10 40 0 -
r 3.239424 11 7 tcp 1440 ------N 0 6.0 7.0 379401 542 1 0x10 40 0 -
r 3.250944 11 7 tcp 1440 ------N 0 6.0 7.0 380801 544 1 0x10 40 0 -
r 3.262464 11 7 tcp 1440 ------N 0 6.0 7.0 382201 546 1 0x10 40 0 -
r 3.273984 11 7 tcp 1440 ------N 0 6.0 7.0 383601 548 1 0x10 40 0 -
r 3.285504 11 7 tcp 1440 ------N 0 6.0 7.0 385001 550 1 0x10 40 0 -
r 3.297024 11 7 tcp 1440 ------N 0 6.0 7.0 386401 552 1 0x10 40 0 -
r 3.308544 11 7 tcp 1440 ------N 0 6.0 7.0 387801 554 1 0x10 40 0 -
r 3.320064 11 7 tcp 1440 ------N 0 6.0 7.0 389201 556 1 0x10 40 0 -
r 3.331584 11 7 tcp 1440 ------N 0 6.0 7.0 390601 558 1 0x10 40 0 -
r 3.343104 11 7 tcp 1440 ------N 0 6.0 7.0 392001 560 1 0x10 40 0 -
r 3.354624 11 7 tcp 1440 ------N 0 6.0 7.0 393401 562 1 0x10 40 0 -
r 3.366144 11 7 tcp 1440 ------N 0 6.0 7.0 394801 563 1 0x10 40 0 -
r 3.377664 11 7 tcp 1440 ------N 0 6.0 7.0 396201 565 1 0x10 40 0 -
r 3.389184 11 7 tcp 1440 ------N 0 6.0 7.0 397601 567 1 0x10 40 0 -
r 3.400704 11 7 tcp 1440 ------N 0 6.0 7.0 399001 569 1 0x10 40 0 -
r 3.412224 11 7 tcp 1440 ------N 0 6.0 7.0 400401 571 1 0x10 40 0 -
r 3.423744 11 7 tcp 1440 ------N 0 6.0 7.0 401801 573 1 0x10 40 0 -
r 3.435264 11 7 tcp 1440 ------N 0 6.0 7.0 403201 575 1 0x10 40 0 -
r 3.446784 11 7 tcp 1440 ------N 0 6.0 7.0 404601 577 1 0x10 40 0 -
r 3.458304 11 7 tcp 1440 ------N 0 6.0 7.0 406001 579 1 0x10 40 0 -
r 3.469824 11 7 tcp 1440 ------N 0 6.0 7.0 407401 581 1 0x10 40 0 -
r 3.481344 11 7 tcp 1440 ------N 0 6.0 7.0 408801 583 1 0x10 40 0 -
r 3.492864 11 7 tcp 1440 ------N 0 6.0 7.0 410201 585 1 0x10 40 0 -
r 3.504384 11 7 tcp 1440 ------N 0 6.0 7.0 411601 587 1 0x10 40 0 -
r 3.515904 11 7 tcp 1440 ------N 0 6.0 7.0 413001 589 1 0x10 40 0 -
r 3.527424 11 7 tcp 1440 ------N 0 6.0 7.0 414401 591 1 0x10 40 0 -
r 3.538944 11 7 tcp 1440 ------N 0 6.0 7.0 415801 593 1 0x10 40 0 -
r 3.550464 11 7 tcp 1440 ------N 0 6.0 7.0 417201 594 1 0x10 40 0 -
r 3.561984 11 7 tcp 1440 ----E-N 0 6.0 7.0 418601 596 1 0x10 40 0 -
r 3.573504 11 7 tcp 1440 ----E-N 0 6.0 7.0 420001 598 1 0x10 40 0 -
r 3.585024 11 7 tcp 1440 ----E-N 0 6.0 7.0 421401 600 1 0x10 40 0 -
r 3.596544 11 7 tcp 1440 ----E-N 0 6.0 7.0 422801 602 1 0x10 40 0 -
r 3.608064 11 7 tcp 1440 ----E-N 0 6.0 7.0 424201 604 1 0x10 40 0 -
r 3.619584 11 7 tcp 1440 ----E-N 0 6.0 7.0 425601 606 1 0x10 40 0 -
r 3.631104 11 7 tcp 1440 ----E-N 0 6.0 7.0 427001 608 1 0x10 40 0 -
r 3.642624 11 7 tcp 1440 ----E-N 0 6.0 7.0 428401 610 1 0x10 40 0 -
r 3.654144 11 7 tcp 1440 ----E-N 0 6.0 7.0 429801 612 1 0x10 40 0 -
r 3.665664 11 7 tcp 1440 ----E-N 0 6.0 7.0 431201 614 1 0x10 40 0 -
r 3.677184 11 7 tcp 1440 ----E-N 0 6.0 7.0 432601 616 1 0x10 40 0 -
r 3.688704 11 7 tcp 1440 ----E-N 0 6.0 7.0 434001 618 1 0x10 40 0 -
r 3.700224 11 7 tcp 1440 ----E-N 0 6.0 7.0 435401 620 1 0x10 40 0 -
r 3.711744 11 7 tcp 1440 ----E-N 0 6.0 7.0 436801 622 1 0x10 40 0 -
r 3.723264 11 7 tcp 1440 ----E-N 0 6.0 7.0 438201 624 1 0x10 40 0 -
r 3.734784 11 7 tcp 1440 ---A--N 0 6.0 7.0 439601 629 1 0x90 40 0 -
r 3.746304 11 7 tcp 1440 ------N 0 6.0 7.0 441001 631 1 0x10 40 0 -
r 3.757824 11 7 tcp 1440 ------N 0 6.0 7.0 442401 633 1 0x10 40 0 -
r 3.769344 11 7 tcp 1440 ------N 0 6.0 7.0 443801 635 1 0x10 40 0 -
r 3.780864 11 7 tcp 1440 ------N 0 6.0 7.0 445201 637 1 0x10 40 0 -
r 3.792384 11 7 tcp 1440 ------N 0 6.0 7.0 446601 639 1 0x10 40 0 -
r 3.803904 11 7 tcp 1440 ------N 0 6.0 7.0 448001 641 1 0x10 40 0 -
r 3.815424 11 7 tcp 1440 ------N 0 6.0 7.0 449401 643 1 0x10 40 0 -
r 3.826944 11 7 tcp 1440 ------N 0 6.0 7.0 450801 645 1 0x10 40 0 -
r 3.838464 11 7 tcp 1440 ------N 0 6.0 7.0 452201 647 1 0x10 40 0 -
r 3.849984 11 7 tcp 1440 ------N 0 6.0 7.0 453601 649 1 0x10 40 0 -
r 3.861504 11 7 tcp 1440 ------N 0 6.0 7.0 455001 650 1 0x10 40 0 -
r 3.873024 11 7 tcp 1440 ------N 0 6.0 7.0 456401 652 1 0x10 40 0 -
r 3.884544 11 7 tcp 1440 ------N 0 6.0 7.0 457801 654 1 0x10 40 0 -
r 3.896064 11 7 tcp 1440 ------N 0 6.0 7.0 459201 656 1 0x10 40 0 -
r 3.907584 11 7 tcp 1440 ------N 0 6.0 7.0 460601 658 1 0x10 40 0 -
r 3.919104 11 7 tcp 1440 ------N 0 6.0 7.0 462001 660 1 0x10 40 0 -
r 3.930624 11 7 tcp 1440 ------N 0 6.0 7.0 463401 662 1 0x10 40 0 -
r 3.942144 11 7 tcp 1440 ------N 0 6.0 7.0 464801 664 1 0x10 40 0 -
r 3.953664 11 7 tcp 1440 ------N 0 6.0 7.0 466201 666 1 0x10 40 0 -
r 3.965184 11 7 tcp 1440 ------N 0 6.0 7.0 467601 668 1 0x10 40 0 -
r 3.976704 11 7 tcp 1440 ------N 0 6.0 7.0 469001 670 1 0x10 40 0 -
r 3.988224 11 7 tcp 1440 ------N 0 6.0 7.0 470401 672 1 0x10 40 0 -
r 3.999744 11 7 tcp 1440 ------N 0 6.0 7.0 471801 674 1 0x10 40 0 -
r 4.011264 11 7 tcp 1440 ------N 0 6.0 7.0 473201 676 1 0x10 40 0 -
r 4.022784 11 7 tcp 1440 ------N 0 6.0 7.0 474601 678 1 0x10 40 0 -
r 4.034304 11 7 tcp 1440 ------N 0 6.0 7.0 476001 679 1 0x10 40 0 -
r 4.045824 11 7 tcp 1440 ------N 0 6.0 7.0 477401 681 1 0x10 40 0 -
r 4.057344 11 7 tcp 1440 ------N 0 6.0 7.0 478801 683 1 0x10 40 0 -
r 4.068864 11 7 tcp 1440 ------N 0 6.0 7.0 480201 685 1 0x10 40 0 -
r 4.080384 11 7 tcp 1440 ------N 0 6.0 7.0 481601 687 1 0x10 40 0 -
r 4.091904 11 7 tcp 1440 ------N 0 6.0 7.0 483001 689 1 0x10 40 0 -
r 4.103424 11 7 tcp 1440 ------N 0 6.0 7.0 484401 691 1 0x10 40 0 -
r 4.114944 11 7 tcp 1440 ------N 0 6.0 7.0 485801 693 1 0x10 40 0 -
r 4.126464 11 7 tcp 1440 ------N 0 6.0 7.0 487201 695 1 0x10 40 0 -
r 4.137984 11 7 tcp 1440 ------N 0 6.0 7.0 488601 697 1 0x10 40 0 -
r 4.149504 11 7 tcp 1440 ------N 0 6.0 7.0 490001 699 1 0x10 40 0 -
r 4.161024 11 7 tcp 1440 ------N 0 6.0 7.0 491401 701 1 0x10 40 0 -
r 4.172544 11 7 tcp 1440 ------N 0 6.0 7.0 492801 703 1 0x10 40 0 -
r 4.184064 11 7 tcp 1440 ------N 0 6.0 7.0 494201 705 1 0x10 40 0 -
r 4.195584 11 7 tcp 1440 ------N 0 6.0 7.0 495601 707 1 0x10 40 0 -
r 4.207104 11 7 tcp 1440 ------N 0 6.0 7.0 497001 709 1 0x10 40 0 -
r 4.218624 11 7 tcp 1440 ------N 0 6.0 7.0 498401 710 1 0x10 40 0 -
r 4.230144 11 7 tcp 1440 ----E-N 0 6.0 7.0 499801 712 1 0x10 40 0 -
r 4.241664 11 7 tcp 1440 ----E-N 0 6.0 7.0 501201 714 1 0x10 40 0 -
r 4.253184 11 7 tcp 1440 ----E-N 0 6.0 7.0 502601 716 1 0x10 40 0 -
r 4.264704 11 7 tcp 1440 ----E-N 0 6.0 7.0 504001 718 1 0x10 40 0 -
r 4.276224 11 7 tcp 1440 ----E-N 0 6.0 7.0 505401 720 1 0x10 40 0 -
r 4.287744 11 7 tcp 1440 ----E-N 0 6.0 7.0 506801 722 1 0x10 40 0 -
r 4.299264 11 7 tcp 1440 ----E-N 0 6.0 7.0 508201 724 1 0x10 40 0 -
r 4.310784 11 7 tcp 1440 ----E-N 0 6.0 7.0 509601 726 1 0x10 40 0 -
r 4.322304 11 7 tcp 1440 ----E-N 0 6.0 7.0 511001 728 1 0x10 40 0 -
r 4.333824 11 7 tcp 1440 ----E-N 0 6.0 7.0 512401 730 1 0x10 40 0 -
r 4.345344 11 7 tcp 1440 ----E-N 0 6.0 7.0 513801 732 1 0x10 40 0 -
r 4.356864 11 7 tcp 1440 ----E-N 0 6.0 7.0 515201 734 1 0x10 40 0 -
r 4.368384 11 7 tcp 1440 ----E-N 0 6.0 7.0 516601 736 1 0x10 40 0 -
r 4.379904 11 7 tcp 1440 ----E-N 0 6.0 7.0 518001 738 1 0x10 40 0 -
r 4.391424 11 7 tcp 1440 ----E-N 0 6.0 7.0 519401 740 1 0x10 40 0 -
r 4.402944 11 7 tcp 1440 ---A--N 0 6.0 7.0 520801 745 1 0x90 40 0 -
r 4.414464 11 7 tcp 1440 ------N 0 6.0 7.0 522201 747 1 0x10 40 0 -
r 4.425984 11 7 tcp 1440 ------N 0 6.0 7.0 523601 749 1 0x10 40 0 -
r 4.437504 11 7 tcp 1440 ------N 0 6.0 7.0 525001 751 1 0x10 40 0 -
r 4.449024 11 7 tcp 1440 ------N 0 6.0 7.0 526401 753 1 0x10 40 0 -
r 4.460544 11 7 tcp 1440 ------N 0 6.0 7.0 527801 755 1 0x10 40 0 -
r 4.472064 11 7 tcp 1440 ------N 0 6.0 7.0 529201 757 1 0x10 40 0 -
r 4.483584 11 7 tcp 1440 ------N 0 6.0 7.0 530601 759 1 0x10 40 0 -
r 4.495104 11 7 tcp 1440 ------N 0 6.0 7.0 532001 761 1 0x10 40 0 -
r 4.506624 11 7 tcp 1440 ------N 0 6.0 7.0 533401 763 1 0x10 40 0 -
r 4.518144 11 7 tcp 1440 ------N 0 6.0 7.0 534801 765 1 0x10 40 0 -
r 4.529664 11 7 tcp 1440 ------N 0 6.0 7.0 536201 766 1 0x10 40 0 -
r 4.541184 11 7 tcp 1440 ------N 0 6.0 7.0 537601 768 1 0x10 40 0 -
r 4.552704 11 7 tcp 1440 ------N 0 6.0 7.0 539001 770 1 0x10 40 0 -
r 4.564224 11 7 tcp 1440 ------N 0 6.0 7.0 540401 772 1 0x10 40 0 -
r 4.575744 11 7 tcp 1440 ------N 0 6.0 7.0 541801 774 1 0x10 40 0 -
r 4.587264 11 7 tcp 1440 ------N 0 6.0 7.0 543201 776 1 0x10 40 0 -
r 4.598784 11 7 tcp 1440 ------N 0 6.0 7.0 544601 778 1 0x10 40 0 -
r 4.610304 11 7 tcp 1440 ------N 0 6.0 7.0 546001 780 1 0x10 40 0 -
r 4.621824 11 7 tcp 1440 ------N 0 6.0 7.0 547401 782 1 0x10 40 0 -
r 4.633344 11 7 tcp 1440 ------N 0 6.0 7.0 548801 784 1 0x10 40 0 -
r 4.644864 11 7 tcp 1440 ------N 0 6.0 7.0 550201 786 1 0x10 40 0 -
r 4.656384 11 7 tcp 1440 ------N 0 6.0 7.0 551601 788 1 0x10 40 0 -
r 4.667904 11 7 tcp 1440 ------N 0 6.0 7.0 553001 790 1 0x10 40 0 -
r 4.679424 11 7 tcp 1440 ------N 0 6.0 7.0 554401 792 1 0x10 40 0 -
r 4.690944 11 7 tcp 1440 ------N 0 6.0 7.0 555801 794 1 0x10 40 0 -
r 4.702464 11 7 tcp 1440 ------N 0 6.0 7.0 557201 795 1 0x10 40 0 -
r 4.713984 11 7 tcp 1440 ------N 0 6.0 7.0 558601 797 1 0x10 40 0 -
r 4.725504 11 7 tcp 1440 ------N 0 6.0 7.0 560001 799 1 0x10 40 0 -
r 4.737024 11 7 tcp 1440 ------N 0 6.0 7.0 561401 801 1 0x10 40 0 -
r 4.748544 11 7 tcp 1440 ------N 0 6.0 7.0 562801 803 1 0x10 40 0 -
r 4.760064 11 7 tcp 1440 ------N 0 6.0 7.0 564201 805 1 0x10 40 0 -
r 4.771584 11 7 tcp 1440 ------N 0 6.0 7.0 565601 807 1 0x10 40 0 -
r 4.783104 11 7 tcp 1440 ------N 0 6.0 7.0 567001 809 1 0x10 40 0 -
r 4.794624 11 7 tcp 1440 ------N 0 6.0 7.0 568401 811 1 0x10 40 0 -
r 4.806144 11 7 tcp 1440 ------N 0 6.0 7.0 569801 813 1 0x10 40 0 -
r 4.817664 11 7 tcp 1440 ------N 0 6.0 7.0 571201 815 1 0x10 40 0 -
r 4.829184 11 7 tcp 1440 ------N 0 6.0 7.0 572601 817 1 0x10 40 0 -
r 4.840704 11 7 tcp 1440 ------N 0 6.0 7.0 574001 819 1 0x10 40 0 -
r 4.852224 11 7 tcp 1440 ------N 0 6.0 7.0 575401 821 1 0x10 40 0 -
r 4.863744 11 7 tcp 1440 ------N 0 6.0 7.0 576801 823 1 0x10 40 0 -
r 4.875264 11 7 tcp 1440 ------N 0 6.0 7.0 578201 825 1 0x10 40 0 -
r 4.886784 11 7 tcp 1440 ------N 0 6.0 7.0 579601 826 1 0x10 40 0 -
r 4.898304 11 7 tcp 1440 ----E-N 0 6.0 7.0 581001 828 1 0x10 40 0 -
r 4.909824 11 7 tcp 1440 ----E-N 0 6.0 7.0 582401 830 1 0x10 40 0 -
r 4.921344 11 7 tcp 1440 ----E-N 0 6.0 7.0 583801 832 1 0x10 40 0 -
r 4.932864 11 7 tcp 1440 ----E-N 0 6.0 7.0 585201 834 1 0x10 40 0 -
r 4.944384 11 7 tcp 1440 ----E-N 0 6.0 7.0 586601 836 1 0x10 40 0 -
r 4.955904 11 7 tcp 1440 ----E-N 0 6.0 7.0 588001 838 1 0x10 40 0 -
r 4.967424 11 7 tcp 1440 ----E-N 0 6.0 7.0 589401 840 1 0x10 40 0 -
r 4.978944 11 7 tcp 1440 ----E-N 0 6.0 7.0 590801 842 1 0x10 40 0 -
r 4.990464 11 7 tcp 1440 ----E-N 0 6.0 7.0 592201 844 1 0x10 40 0 -
r 5.001984 11 7 tcp 1440 ----E-N 0 6.0 7.0 593601 846 1 0x10 40 0 -
r 5.013504 11 7 tcp 1440 ----E-N 0 6.0 7.0 595001 848 1 0x10 40 0 -
r 5.025024 11 7 tcp 1440 ----E-N 0 6.0 7.0 596401 850 1 0x10 40 0 -
r 5.036544 11 7 tcp 1440 ----E-N 0 6.0 7.0 597801 852 1 0x10 40 0 -
r 5.048064 11 7 tcp 1440 ----E-N 0 6.0 7.0 599201 854 1 0x10 40 0 -
r 5.059584 11 7 tcp 1440 ----E-N 0 6.0 7.0 600601 856 1 0x10 40 0 -
r 5.071104 11 7 tcp 1440 ---A--N 0 6.0 7.0 602001 860 1 0x90 40 0 -
r 5.082624 11 7 tcp 1440 ------N 0 6.0 7.0 603401 862 1 0x10 40 0 -
r 5.094144 11 7 tcp 1440 ------N 0 6.0 7.0 604801 864 1 0x10 40 0 -
r 5.105664 11 7 tcp 1440 ------N 0 6.0 7.0 606201 866 1 0x10 40 0 -
r 5.117184 11 7 tcp 1440 ------N 0 6.0 7.0 607601 868 1 0x10 40 0 -
r 5.128704 11 7 tcp 1440 ------N 0 6.0 7.0 609001 870 1 0x10 40 0 -
r 5.140224 11 7 tcp 1440 ------N 0 6.0 7.0 610401 872 1 0x10 40 0 -
r 5.151744 11 7 tcp 1440 ------N 0 6.0 7.0 611801 874 1 0x10 40 0 -
r 5.163264 11 7 tcp 1440 ------N 0 6.0 7.0 613201 876 1 0x10 40 0 -
r 5.174784 11 7 tcp 1440 ------N 0 6.0 7.0 614601 878 1 0x10 40 0 -
r 5.186304 11 7 tcp 1440 ------N 0 6.0 7.0 616001 880 1 0x10 40 0 -